LAMMPS (2 Aug 2023)
OMP_NUM_THREADS environment is not set. Defaulting to 1 thread. (src/comm.cpp:98)
  using 1 OpenMP thread(s) per MPI task
# 3d Lennard-Jones melt (longer run for validation)

variable        x index 1
variable        y index 1
variable        z index 1

variable        xx equal 20*$x
variable        xx equal 20*1
variable        yy equal 20*$y
variable        yy equal 20*1
variable        zz equal 20*$z
variable        zz equal 20*1

units           lj
atom_style      atomic

lattice         fcc 0.8442
Lattice spacing in x,y,z = 1.6795962 1.6795962 1.6795962
region          box block 0 ${xx} 0 ${yy} 0 ${zz}
region          box block 0 20 0 ${yy} 0 ${zz}
region          box block 0 20 0 20 0 ${zz}
region          box block 0 20 0 20 0 20
create_box      1 box
Created orthogonal box = (0 0 0) to (33.591924 33.591924 33.591924)
  1 by 2 by 2 MPI processor grid
create_atoms    1 box
Created 32000 atoms
  using lattice units in orthogonal box = (0 0 0) to (33.591924 33.591924 33.591924)
  create_atoms CPU = 0.001 seconds
mass            1 1.0

velocity        all create 1.44 419307 loop geom

pair_style      lj/cut 2.5
pair_coeff      1 1 1.0 1.0 2.5

neighbor        0.3 bin
neigh_modify    delay 0 every 20 check no

fix             1 all nve

run             33000
Generated 0 of 0 mixed pair_coeff terms from geometric mixing rule
Neighbor list info ...
  update: every = 20 steps, delay = 0 steps, check = no
  max neighbors/atom: 2000, page size: 100000
  master list distance cutoff = 2.8
  ghost atom cutoff = 2.8
  binsize = 1.4, bins = 24 24 24
  1 neighbor lists, perpetual/occasional/extra = 1 0 0
  (1) pair lj/cut, perpetual
      attributes: half, newton on
      pair build: half/bin/atomonly/newton
      stencil: half/bin/3d
      bin: standard
Per MPI rank memory allocation (min/avg/max) = 5.829 | 5.83 | 5.83 Mbytes
   Step          Temp          E_pair         E_mol          TotEng         Press     
     20000   0.70012818    -5.6725975      0             -4.622438       0.72964551   
     33000   0.69586533    -5.6678023      0             -4.6240369      0.74537611   
Loop time of 43.5361 on 4 procs for 13000 steps with 32000 atoms

Performance: 128996.376 tau/day, 298.603 timesteps/s, 9.555 Matom-step/s
99.0% CPU use with 4 MPI tasks x 1 OpenMP threads

MPI task timing breakdown:
Section |  min time  |  avg time  |  max time  |%varavg| %total
---------------------------------------------------------------
Pair    | 33.088     | 33.53      | 34.009     |   6.5 | 77.02
Neigh   | 6.7061     | 6.7557     | 6.7868     |   1.3 | 15.52
Comm    | 2.0421     | 2.5548     | 2.9714     |  24.5 |  5.87
Output  | 3.1501e-05 | 4.5762e-05 | 5.6043e-05 |   0.0 |  0.00
Modify  | 0.61208    | 0.61347    | 0.61617    |   0.2 |  1.41
Other   |            | 0.08223    |            |       |  0.19

Nlocal:           8000 ave        8019 max        7964 min
Histogram: 1 0 0 0 0 0 0 1 1 1
Nghost:        8590.75 ave        8602 max        8572 min
Histogram: 1 0 0 0 0 0 1 0 1 1
Neighs:         299988 ave      303499 max      295199 min
Histogram: 1 0 0 0 0 0 1 1 0 1

Total # of neighbors = 1199953
Ave neighs/atom = 37.498531
Neighbor list builds = 650
Dangerous builds not checked
Total wall time: 0:00:43
