LAMMPS (2 Aug 2023)
OMP_NUM_THREADS environment is not set. Defaulting to 1 thread. (src/comm.cpp:98)
  using 1 OpenMP thread(s) per MPI task
variable        x index 1
variable        y index 1
variable        z index 1
variable        xx equal 20*$x
variable        xx equal 20*1
variable        yy equal 20*$y
variable        yy equal 20*1
variable        zz equal 20*$z
variable        zz equal 20*1
units           lj
atom_style      atomic
lattice         fcc 0.8442
Lattice spacing in x,y,z = 1.6795962 1.6795962 1.6795962
region          box block 0 ${xx} 0 ${yy} 0 ${zz}
region          box block 0 20 0 ${yy} 0 ${zz}
region          box block 0 20 0 20 0 ${zz}
region          box block 0 20 0 20 0 20
create_box      1 box
Created orthogonal box = (0 0 0) to (33.591924 33.591924 33.591924)
  1 by 2 by 2 MPI processor grid
mass            1 1.0
pair_style      lj/cut 2.5
pair_coeff      1 1 1.0 1.0 2.5
neighbor        0.3 bin
neigh_modify    delay 0 every 20 check no
fix             1 all nve
reset_timestep 19000
run 1000 pre yes post no
Generated 0 of 0 mixed pair_coeff terms from geometric mixing rule
Neighbor list info ...
  update: every = 20 steps, delay = 0 steps, check = no
  max neighbors/atom: 2000, page size: 100000
  master list distance cutoff = 2.8
  ghost atom cutoff = 2.8
  binsize = 1.4, bins = 24 24 24
  1 neighbor lists, perpetual/occasional/extra = 1 0 0
  (1) pair lj/cut, perpetual
      attributes: half, newton on
      pair build: half/bin/atomonly/newton
      stencil: half/bin/3d
      bin: standard
Per MPI rank memory allocation (min/avg/max) = 5.83 | 5.831 | 5.831 Mbytes
   Step          Temp          E_pair         E_mol          TotEng         Press     
     19000   0.69623842    -5.6665752      0             -4.6222502      0.7519189    
     20000   0.69590571    -5.6664345      0             -4.6226086      0.74305834   
Loop time of 3.39406 on 4 procs for 1000 steps with 32000 atoms

run 1000 pre no post no
   Step          Temp          E_pair         E_mol          TotEng         Press     
     20000   0.69590571    -5.6664345      0             -4.6226086      0.74305834   
     21000   0.69800424    -5.6698347      0             -4.6228611      0.7286298    
Loop time of 3.39274 on 4 procs for 1000 steps with 32000 atoms

run 1000 pre no post no
   Step          Temp          E_pair         E_mol          TotEng         Press     
     21000   0.69800424    -5.6698347      0             -4.6228611      0.7286298    
     22000   0.69586683    -5.6667541      0             -4.6229865      0.74593472   
Loop time of 3.39164 on 4 procs for 1000 steps with 32000 atoms

run 1000 pre no post no
   Step          Temp          E_pair         E_mol          TotEng         Press     
     22000   0.69586683    -5.6667541      0             -4.6229865      0.74593472   
     23000   0.69749249    -5.6694179      0             -4.6232119      0.72427218   
Loop time of 3.38065 on 4 procs for 1000 steps with 32000 atoms

run 1000 pre no post no
   Step          Temp          E_pair         E_mol          TotEng         Press     
     23000   0.69749249    -5.6694179      0             -4.6232119      0.72427218   
     24000   0.69735708    -5.6689262      0             -4.6229232      0.74617229   
Loop time of 3.38901 on 4 procs for 1000 steps with 32000 atoms

run 1000 pre no post no
   Step          Temp          E_pair         E_mol          TotEng         Press     
     24000   0.69735708    -5.6689262      0             -4.6229232      0.74617229   
     25000   0.69762322    -5.6694316      0             -4.6230295      0.73684031   
Loop time of 3.3896 on 4 procs for 1000 steps with 32000 atoms

run 1000 pre no post no
   Step          Temp          E_pair         E_mol          TotEng         Press     
     25000   0.69762322    -5.6694316      0             -4.6230295      0.73684031   
     26000   0.69367543    -5.6635312      0             -4.6230505      0.75979134   
Loop time of 3.38689 on 4 procs for 1000 steps with 32000 atoms

run 1000 pre no post no
   Step          Temp          E_pair         E_mol          TotEng         Press     
     26000   0.69367543    -5.6635312      0             -4.6230505      0.75979134   
     27000   0.69475015    -5.6654444      0             -4.6233517      0.75456966   
Loop time of 3.39135 on 4 procs for 1000 steps with 32000 atoms

run 1000 pre no post no
   Step          Temp          E_pair         E_mol          TotEng         Press     
     27000   0.69475015    -5.6654444      0             -4.6233517      0.75456966   
     28000   0.69155557    -5.6609614      0             -4.6236605      0.75638898   
Loop time of 3.3948 on 4 procs for 1000 steps with 32000 atoms

run 1000 pre no post no
   Step          Temp          E_pair         E_mol          TotEng         Press     
     28000   0.69155557    -5.6609614      0             -4.6236605      0.75638898   
     29000   0.69408012    -5.6645379      0             -4.6234503      0.76999046   
Loop time of 3.38667 on 4 procs for 1000 steps with 32000 atoms

run 1000 pre no post no
   Step          Temp          E_pair         E_mol          TotEng         Press     
     29000   0.69408012    -5.6645379      0             -4.6234503      0.76999046   
     30000   0.69520586    -5.666589       0             -4.6238128      0.75417043   
Loop time of 3.38255 on 4 procs for 1000 steps with 32000 atoms

run 1000 pre no post no
   Step          Temp          E_pair         E_mol          TotEng         Press     
     30000   0.69520586    -5.666589       0             -4.6238128      0.75417043   
     31000   0.69930732    -5.6728799      0             -4.6239517      0.70863339   
Loop time of 3.38526 on 4 procs for 1000 steps with 32000 atoms

run 1000 pre no post no
   Step          Temp          E_pair         E_mol          TotEng         Press     
     31000   0.69930732    -5.6728799      0             -4.6239517      0.70863339   
     32000   0.69631871    -5.6686302      0             -4.6241848      0.74578305   
Loop time of 3.37175 on 4 procs for 1000 steps with 32000 atoms

run 1000 pre no post yes
   Step          Temp          E_pair         E_mol          TotEng         Press     
     32000   0.69631871    -5.6686302      0             -4.6241848      0.74578305   
     33000   0.69538034    -5.6671891      0             -4.6241511      0.73695365   
Loop time of 3.38518 on 4 procs for 1000 steps with 32000 atoms

Performance: 127614.931 tau/day, 295.405 timesteps/s, 9.453 Matom-step/s
98.8% CPU use with 4 MPI tasks x 1 OpenMP threads

MPI task timing breakdown:
Section |  min time  |  avg time  |  max time  |%varavg| %total
---------------------------------------------------------------
Pair    | 2.5719     | 2.6203     | 2.6563     |   1.9 | 77.41
Neigh   | 0.51216    | 0.51522    | 0.51786    |   0.3 | 15.22
Comm    | 0.15228    | 0.19209    | 0.24257    |   7.5 |  5.67
Output  | 3.1875e-05 | 4.199e-05  | 5.9501e-05 |   0.0 |  0.00
Modify  | 0.051098   | 0.05178    | 0.052932   |   0.3 |  1.53
Other   |            | 0.005731   |            |       |  0.17

Nlocal:           8000 ave        8021 max        7977 min
Histogram: 1 0 0 1 0 0 0 1 0 1
Nghost:         8608.5 ave        8646 max        8580 min
Histogram: 1 0 1 0 1 0 0 0 0 1
Neighs:         300014 ave      303369 max      296091 min
Histogram: 1 0 0 0 0 1 1 0 0 1

Total # of neighbors = 1200055
Ave neighs/atom = 37.501719
Neighbor list builds = 700
Dangerous builds not checked
Total wall time: 0:00:47
