LAMMPS (2 Aug 2023)
OMP_NUM_THREADS environment is not set. Defaulting to 1 thread. (src/comm.cpp:98)
  using 1 OpenMP thread(s) per MPI task
variable        x index 1
variable        y index 1
variable        z index 1
variable        xx equal 20*$x
variable        xx equal 20*1
variable        yy equal 20*$y
variable        yy equal 20*1
variable        zz equal 20*$z
variable        zz equal 20*1
units           lj
atom_style      atomic
lattice         fcc 0.8442
Lattice spacing in x,y,z = 1.6795962 1.6795962 1.6795962
region          box block 0 ${xx} 0 ${yy} 0 ${zz}
region          box block 0 20 0 ${yy} 0 ${zz}
region          box block 0 20 0 20 0 ${zz}
region          box block 0 20 0 20 0 20
create_box      1 box
Created orthogonal box = (0 0 0) to (33.591924 33.591924 33.591924)
  1 by 2 by 2 MPI processor grid
create_atoms    1 box
Created 32000 atoms
  using lattice units in orthogonal box = (0 0 0) to (33.591924 33.591924 33.591924)
  create_atoms CPU = 0.001 seconds
mass            1 1.0
velocity        all create 1.44 143941 loop geom
pair_style      lj/cut 2.5
pair_coeff      1 1 1.0 1.0 2.5
neighbor        0.3 bin
neigh_modify    delay 0 every 20 check no
fix             1 all nve
run 1000 pre yes post no
Generated 0 of 0 mixed pair_coeff terms from geometric mixing rule
Neighbor list info ...
  update: every = 20 steps, delay = 0 steps, check = no
  max neighbors/atom: 2000, page size: 100000
  master list distance cutoff = 2.8
  ghost atom cutoff = 2.8
  binsize = 1.4, bins = 24 24 24
  1 neighbor lists, perpetual/occasional/extra = 1 0 0
  (1) pair lj/cut, perpetual
      attributes: half, newton on
      pair build: half/bin/atomonly/newton
      stencil: half/bin/3d
      bin: standard
Per MPI rank memory allocation (min/avg/max) = 5.881 | 5.881 | 5.881 Mbytes
   Step          Temp          E_pair         E_mol          TotEng         Press     
         0   1.44          -6.7733681      0             -4.6134356     -5.0197073    
      1000   0.7019355     -5.6735108      0             -4.6206404      0.7182699    
Loop time of 3.34571 on 4 procs for 1000 steps with 32000 atoms

run 1000 pre no post no
   Step          Temp          E_pair         E_mol          TotEng         Press     
      1000   0.7019355     -5.6735108      0             -4.6206404      0.7182699    
      2000   0.69070706    -5.6562639      0             -4.6202356      0.79916188   
Loop time of 3.35597 on 4 procs for 1000 steps with 32000 atoms

run 1000 pre no post no
   Step          Temp          E_pair         E_mol          TotEng         Press     
      2000   0.69070706    -5.6562639      0             -4.6202356      0.79916188   
      3000   0.69510788    -5.6630269      0             -4.6203977      0.76444379   
Loop time of 3.36543 on 4 procs for 1000 steps with 32000 atoms

run 1000 pre no post no
   Step          Temp          E_pair         E_mol          TotEng         Press     
      3000   0.69510788    -5.6630269      0             -4.6203977      0.76444379   
      4000   0.69762396    -5.666735       0             -4.6203317      0.75389258   
Loop time of 3.35076 on 4 procs for 1000 steps with 32000 atoms

run 1000 pre no post no
   Step          Temp          E_pair         E_mol          TotEng         Press     
      4000   0.69762396    -5.666735       0             -4.6203317      0.75389258   
      5000   0.69817334    -5.6679378      0             -4.6207106      0.74185737   
Loop time of 3.3728 on 4 procs for 1000 steps with 32000 atoms

run 1000 pre no post no
   Step          Temp          E_pair         E_mol          TotEng         Press     
      5000   0.69817334    -5.6679378      0             -4.6207106      0.74185737   
      6000   0.69669479    -5.6658044      0             -4.6207949      0.74776047   
Loop time of 3.34656 on 4 procs for 1000 steps with 32000 atoms

run 1000 pre no post no
   Step          Temp          E_pair         E_mol          TotEng         Press     
      6000   0.69669479    -5.6658044      0             -4.6207949      0.74776047   
      7000   0.69464206    -5.6625752      0             -4.6206447      0.75476697   
Loop time of 3.37062 on 4 procs for 1000 steps with 32000 atoms

run 1000 pre no post no
   Step          Temp          E_pair         E_mol          TotEng         Press     
      7000   0.69464206    -5.6625752      0             -4.6206447      0.75476697   
      8000   0.69676148    -5.6660307      0             -4.6209211      0.7473453    
Loop time of 3.36684 on 4 procs for 1000 steps with 32000 atoms

run 1000 pre no post no
   Step          Temp          E_pair         E_mol          TotEng         Press     
      8000   0.69676148    -5.6660307      0             -4.6209211      0.7473453    
      9000   0.69475101    -5.6633448      0             -4.6212508      0.75595502   
Loop time of 3.35557 on 4 procs for 1000 steps with 32000 atoms

run 1000 pre no post no
   Step          Temp          E_pair         E_mol          TotEng         Press     
      9000   0.69475101    -5.6633448      0             -4.6212508      0.75595502   
     10000   0.69797322    -5.6676897      0             -4.6207626      0.76015929   
Loop time of 3.34153 on 4 procs for 1000 steps with 32000 atoms

run 1000 pre no post no
   Step          Temp          E_pair         E_mol          TotEng         Press     
     10000   0.69797322    -5.6676897      0             -4.6207626      0.76015929   
     11000   0.70026899    -5.6717478      0             -4.6213771      0.73138538   
Loop time of 3.36352 on 4 procs for 1000 steps with 32000 atoms

run 1000 pre no post no
   Step          Temp          E_pair         E_mol          TotEng         Press     
     11000   0.70026899    -5.6717478      0             -4.6213771      0.73138538   
     12000   0.69590296    -5.6652161      0             -4.6213943      0.75541734   
Loop time of 3.35641 on 4 procs for 1000 steps with 32000 atoms

run 1000 pre no post no
   Step          Temp          E_pair         E_mol          TotEng         Press     
     12000   0.69590296    -5.6652161      0             -4.6213943      0.75541734   
     13000   0.69543834    -5.6648516      0             -4.6217267      0.74999789   
Loop time of 3.34817 on 4 procs for 1000 steps with 32000 atoms

run 1000 pre no post no
   Step          Temp          E_pair         E_mol          TotEng         Press     
     13000   0.69543834    -5.6648516      0             -4.6217267      0.74999789   
     14000   0.69731019    -5.6677806      0             -4.621848       0.74722268   
Loop time of 3.36239 on 4 procs for 1000 steps with 32000 atoms

run 1000 pre no post no
   Step          Temp          E_pair         E_mol          TotEng         Press     
     14000   0.69731019    -5.6677806      0             -4.621848       0.74722268   
     15000   0.69492996    -5.6640984      0             -4.621736       0.77131253   
Loop time of 3.35698 on 4 procs for 1000 steps with 32000 atoms

run 1000 pre no post no
   Step          Temp          E_pair         E_mol          TotEng         Press     
     15000   0.69492996    -5.6640984      0             -4.621736       0.77131253   
     16000   0.69830587    -5.669209       0             -4.621783       0.73820028   
Loop time of 3.37168 on 4 procs for 1000 steps with 32000 atoms

run 1000 pre no post no
   Step          Temp          E_pair         E_mol          TotEng         Press     
     16000   0.69830587    -5.669209       0             -4.621783       0.73820028   
     17000   0.69681913    -5.667284       0             -4.622088       0.749501     
Loop time of 3.35036 on 4 procs for 1000 steps with 32000 atoms

run 1000 pre no post no
   Step          Temp          E_pair         E_mol          TotEng         Press     
     17000   0.69681913    -5.667284       0             -4.622088       0.749501     
     18000   0.69507893    -5.6646708      0             -4.622085       0.75603952   
Loop time of 3.3635 on 4 procs for 1000 steps with 32000 atoms

run 1000 pre no post no
   Step          Temp          E_pair         E_mol          TotEng         Press     
     18000   0.69507893    -5.6646708      0             -4.622085       0.75603952   
     19000   0.69623842    -5.6665752      0             -4.6222502      0.7519189    
Loop time of 3.34453 on 4 procs for 1000 steps with 32000 atoms

run 1000 pre no post no
   Step          Temp          E_pair         E_mol          TotEng         Press     
     19000   0.69623842    -5.6665752      0             -4.6222502      0.7519189    
     20000   0.69590571    -5.6664345      0             -4.6226086      0.74305834   
Loop time of 3.35176 on 4 procs for 1000 steps with 32000 atoms

run 1000 pre no post no
   Step          Temp          E_pair         E_mol          TotEng         Press     
     20000   0.69590571    -5.6664345      0             -4.6226086      0.74305834   
     21000   0.69800424    -5.6698347      0             -4.6228611      0.7286298    
Loop time of 3.36677 on 4 procs for 1000 steps with 32000 atoms

run 1000 pre no post no
   Step          Temp          E_pair         E_mol          TotEng         Press     
     21000   0.69800424    -5.6698347      0             -4.6228611      0.7286298    
     22000   0.69586683    -5.6667541      0             -4.6229865      0.74593472   
Loop time of 3.34091 on 4 procs for 1000 steps with 32000 atoms

run 1000 pre no post no
   Step          Temp          E_pair         E_mol          TotEng         Press     
     22000   0.69586683    -5.6667541      0             -4.6229865      0.74593472   
     23000   0.69749249    -5.6694179      0             -4.6232119      0.72427218   
Loop time of 3.37366 on 4 procs for 1000 steps with 32000 atoms

run 1000 pre no post no
   Step          Temp          E_pair         E_mol          TotEng         Press     
     23000   0.69749249    -5.6694179      0             -4.6232119      0.72427218   
     24000   0.69735708    -5.6689262      0             -4.6229232      0.74617229   
Loop time of 3.35792 on 4 procs for 1000 steps with 32000 atoms

run 1000 pre no post no
   Step          Temp          E_pair         E_mol          TotEng         Press     
     24000   0.69735708    -5.6689262      0             -4.6229232      0.74617229   
     25000   0.69762322    -5.6694316      0             -4.6230295      0.73684031   
Loop time of 3.346 on 4 procs for 1000 steps with 32000 atoms

run 1000 pre no post no
   Step          Temp          E_pair         E_mol          TotEng         Press     
     25000   0.69762322    -5.6694316      0             -4.6230295      0.73684031   
     26000   0.69367543    -5.6635312      0             -4.6230505      0.75979134   
Loop time of 3.34904 on 4 procs for 1000 steps with 32000 atoms

run 1000 pre no post no
   Step          Temp          E_pair         E_mol          TotEng         Press     
     26000   0.69367543    -5.6635312      0             -4.6230505      0.75979134   
     27000   0.69475015    -5.6654444      0             -4.6233517      0.75456966   
Loop time of 3.35043 on 4 procs for 1000 steps with 32000 atoms

run 1000 pre no post no
   Step          Temp          E_pair         E_mol          TotEng         Press     
     27000   0.69475015    -5.6654444      0             -4.6233517      0.75456966   
     28000   0.69155557    -5.6609614      0             -4.6236605      0.75638898   
Loop time of 3.35378 on 4 procs for 1000 steps with 32000 atoms

run 1000 pre no post no
   Step          Temp          E_pair         E_mol          TotEng         Press     
     28000   0.69155557    -5.6609614      0             -4.6236605      0.75638898   
     29000   0.69408012    -5.6645379      0             -4.6234503      0.76999046   
Loop time of 3.35544 on 4 procs for 1000 steps with 32000 atoms

run 1000 pre no post no
   Step          Temp          E_pair         E_mol          TotEng         Press     
     29000   0.69408012    -5.6645379      0             -4.6234503      0.76999046   
     30000   0.69520586    -5.666589       0             -4.6238128      0.75417043   
Loop time of 3.3772 on 4 procs for 1000 steps with 32000 atoms

run 1000 pre no post no
   Step          Temp          E_pair         E_mol          TotEng         Press     
     30000   0.69520586    -5.666589       0             -4.6238128      0.75417043   
     31000   0.69930732    -5.6728799      0             -4.6239517      0.70863339   
Loop time of 3.35775 on 4 procs for 1000 steps with 32000 atoms

run 1000 pre no post no
   Step          Temp          E_pair         E_mol          TotEng         Press     
     31000   0.69930732    -5.6728799      0             -4.6239517      0.70863339   
     32000   0.69631871    -5.6686302      0             -4.6241848      0.74578305   
Loop time of 3.3538 on 4 procs for 1000 steps with 32000 atoms

run 1000 pre no post yes
   Step          Temp          E_pair         E_mol          TotEng         Press     
     32000   0.69631871    -5.6686302      0             -4.6241848      0.74578305   
     33000   0.69538034    -5.6671891      0             -4.6241511      0.73695365   
Loop time of 3.36307 on 4 procs for 1000 steps with 32000 atoms

Performance: 128453.978 tau/day, 297.347 timesteps/s, 9.515 Matom-step/s
99.0% CPU use with 4 MPI tasks x 1 OpenMP threads

MPI task timing breakdown:
Section |  min time  |  avg time  |  max time  |%varavg| %total
---------------------------------------------------------------
Pair    | 2.5772     | 2.6052     | 2.644      |   1.6 | 77.46
Neigh   | 0.51254    | 0.51772    | 0.52602    |   0.7 | 15.39
Comm    | 0.13964    | 0.18711    | 0.21674    |   6.9 |  5.56
Output  | 2.9709e-05 | 4.2229e-05 | 6.0875e-05 |   0.0 |  0.00
Modify  | 0.046747   | 0.047136   | 0.047561   |   0.2 |  1.40
Other   |            | 0.005872   |            |       |  0.17

Nlocal:           8000 ave        8021 max        7977 min
Histogram: 1 0 0 1 0 0 0 1 0 1
Nghost:         8608.5 ave        8646 max        8580 min
Histogram: 1 0 1 0 1 0 0 0 0 1
Neighs:         300014 ave      303369 max      296091 min
Histogram: 1 0 0 0 0 1 1 0 0 1

Total # of neighbors = 1200055
Ave neighs/atom = 37.501719
Neighbor list builds = 1650
Dangerous builds not checked
Total wall time: 0:01:50
