LAMMPS (2 Aug 2023)
OMP_NUM_THREADS environment is not set. Defaulting to 1 thread. (src/comm.cpp:98)
  using 1 OpenMP thread(s) per MPI task
# 3d Lennard-Jones melt (longer run for validation)

variable        x index 1
variable        y index 1
variable        z index 1

variable        xx equal 20*$x
variable        xx equal 20*1
variable        yy equal 20*$y
variable        yy equal 20*1
variable        zz equal 20*$z
variable        zz equal 20*1

units           lj
atom_style      atomic

lattice         fcc 0.8442
Lattice spacing in x,y,z = 1.6795962 1.6795962 1.6795962
region          box block 0 ${xx} 0 ${yy} 0 ${zz}
region          box block 0 20 0 ${yy} 0 ${zz}
region          box block 0 20 0 20 0 ${zz}
region          box block 0 20 0 20 0 20
create_box      1 box
Created orthogonal box = (0 0 0) to (33.591924 33.591924 33.591924)
  1 by 2 by 2 MPI processor grid
create_atoms    1 box
Created 32000 atoms
  using lattice units in orthogonal box = (0 0 0) to (33.591924 33.591924 33.591924)
  create_atoms CPU = 0.001 seconds
mass            1 1.0

velocity        all create 1.44 87287 loop geom

pair_style      lj/cut 2.5
pair_coeff      1 1 1.0 1.0 2.5

neighbor        0.3 bin
neigh_modify    delay 0 every 20 check no

fix             1 all nve

run             33000
Generated 0 of 0 mixed pair_coeff terms from geometric mixing rule
Neighbor list info ...
  update: every = 20 steps, delay = 0 steps, check = no
  max neighbors/atom: 2000, page size: 100000
  master list distance cutoff = 2.8
  ghost atom cutoff = 2.8
  binsize = 1.4, bins = 24 24 24
  1 neighbor lists, perpetual/occasional/extra = 1 0 0
  (1) pair lj/cut, perpetual
      attributes: half, newton on
      pair build: half/bin/atomonly/newton
      stencil: half/bin/3d
      bin: standard
Per MPI rank memory allocation (min/avg/max) = 5.881 | 5.881 | 5.881 Mbytes
   Step          Temp          E_pair         E_mol          TotEng         Press     
         0   1.44          -6.7733681      0             -4.6134356     -5.0197073    
     33000   0.69461208    -5.6659407      0             -4.6240551      0.74841878   
Loop time of 110.266 on 4 procs for 33000 steps with 32000 atoms

Performance: 129287.748 tau/day, 299.277 timesteps/s, 9.577 Matom-step/s
98.8% CPU use with 4 MPI tasks x 1 OpenMP threads

MPI task timing breakdown:
Section |  min time  |  avg time  |  max time  |%varavg| %total
---------------------------------------------------------------
Pair    | 84.399     | 85.164     | 86.149     |   7.0 | 77.24
Neigh   | 16.988     | 17.138     | 17.373     |   3.5 | 15.54
Comm    | 4.9471     | 6.1595     | 7.0662     |  31.5 |  5.59
Output  | 3.1709e-05 | 3.8438e-05 | 5.5792e-05 |   0.0 |  0.00
Modify  | 1.5594     | 1.5687     | 1.5785     |   0.5 |  1.42
Other   |            | 0.2354     |            |       |  0.21

Nlocal:           8000 ave        8027 max        7983 min
Histogram: 2 0 0 0 1 0 0 0 0 1
Nghost:         8584.5 ave        8620 max        8570 min
Histogram: 2 1 0 0 0 0 0 0 0 1
Neighs:         300076 ave      302370 max      297814 min
Histogram: 1 0 0 0 1 1 0 0 0 1

Total # of neighbors = 1200306
Ave neighs/atom = 37.509563
Neighbor list builds = 1650
Dangerous builds not checked
Total wall time: 0:01:50
