LAMMPS (2 Aug 2023)
OMP_NUM_THREADS environment is not set. Defaulting to 1 thread. (src/comm.cpp:98)
  using 1 OpenMP thread(s) per MPI task
# 3d Lennard-Jones melt (longer run for validation)

variable        x index 1
variable        y index 1
variable        z index 1

variable        xx equal 20*$x
variable        xx equal 20*1
variable        yy equal 20*$y
variable        yy equal 20*1
variable        zz equal 20*$z
variable        zz equal 20*1

units           lj
atom_style      atomic

lattice         fcc 0.8442
Lattice spacing in x,y,z = 1.6795962 1.6795962 1.6795962
region          box block 0 ${xx} 0 ${yy} 0 ${zz}
region          box block 0 20 0 ${yy} 0 ${zz}
region          box block 0 20 0 20 0 ${zz}
region          box block 0 20 0 20 0 20
create_box      1 box
Created orthogonal box = (0 0 0) to (33.591924 33.591924 33.591924)
  1 by 2 by 2 MPI processor grid
create_atoms    1 box
Created 32000 atoms
  using lattice units in orthogonal box = (0 0 0) to (33.591924 33.591924 33.591924)
  create_atoms CPU = 0.001 seconds
mass            1 1.0

velocity        all create 1.44 947686 loop geom

pair_style      lj/cut 2.5
pair_coeff      1 1 1.0 1.0 2.5

neighbor        0.3 bin
neigh_modify    delay 0 every 20 check no

fix             1 all nve

run             33000
Generated 0 of 0 mixed pair_coeff terms from geometric mixing rule
Neighbor list info ...
  update: every = 20 steps, delay = 0 steps, check = no
  max neighbors/atom: 2000, page size: 100000
  master list distance cutoff = 2.8
  ghost atom cutoff = 2.8
  binsize = 1.4, bins = 24 24 24
  1 neighbor lists, perpetual/occasional/extra = 1 0 0
  (1) pair lj/cut, perpetual
      attributes: half, newton on
      pair build: half/bin/atomonly/newton
      stencil: half/bin/3d
      bin: standard
Per MPI rank memory allocation (min/avg/max) = 5.881 | 5.881 | 5.881 Mbytes
   Step          Temp          E_pair         E_mol          TotEng         Press     
         0   1.44          -6.7733681      0             -4.6134356     -5.0197073    
     33000   0.6976084     -5.6706758      0             -4.6242959      0.72672392   
Loop time of 109.362 on 4 procs for 33000 steps with 32000 atoms

Performance: 130355.673 tau/day, 301.749 timesteps/s, 9.656 Matom-step/s
99.0% CPU use with 4 MPI tasks x 1 OpenMP threads

MPI task timing breakdown:
Section |  min time  |  avg time  |  max time  |%varavg| %total
---------------------------------------------------------------
Pair    | 84.352     | 84.991     | 86.08      |   7.7 | 77.71
Neigh   | 17.002     | 17.066     | 17.118     |   1.3 | 15.60
Comm    | 4.4101     | 5.5609     | 6.2426     |  32.1 |  5.08
Output  | 5.8709e-05 | 6.6365e-05 | 8.1292e-05 |   0.0 |  0.00
Modify  | 1.5379     | 1.5483     | 1.5584     |   0.6 |  1.42
Other   |            | 0.1964     |            |       |  0.18

Nlocal:           8000 ave        8009 max        7991 min
Histogram: 1 0 0 0 1 1 0 0 0 1
Nghost:        8581.25 ave        8610 max        8565 min
Histogram: 2 0 0 0 1 0 0 0 0 1
Neighs:         299974 ave      302734 max      297348 min
Histogram: 1 0 0 1 0 1 0 0 0 1

Total # of neighbors = 1199895
Ave neighs/atom = 37.496719
Neighbor list builds = 1650
Dangerous builds not checked
Total wall time: 0:01:49
