LAMMPS (2 Aug 2023)
OMP_NUM_THREADS environment is not set. Defaulting to 1 thread. (src/comm.cpp:98)
  using 1 OpenMP thread(s) per MPI task
# 3d Lennard-Jones melt (longer run for validation)

variable        x index 1
variable        y index 1
variable        z index 1

variable        xx equal 20*$x
variable        xx equal 20*1
variable        yy equal 20*$y
variable        yy equal 20*1
variable        zz equal 20*$z
variable        zz equal 20*1

units           lj
atom_style      atomic

lattice         fcc 0.8442
Lattice spacing in x,y,z = 1.6795962 1.6795962 1.6795962
region          box block 0 ${xx} 0 ${yy} 0 ${zz}
region          box block 0 20 0 ${yy} 0 ${zz}
region          box block 0 20 0 20 0 ${zz}
region          box block 0 20 0 20 0 20
create_box      1 box
Created orthogonal box = (0 0 0) to (33.591924 33.591924 33.591924)
  1 by 2 by 2 MPI processor grid
create_atoms    1 box
Created 32000 atoms
  using lattice units in orthogonal box = (0 0 0) to (33.591924 33.591924 33.591924)
  create_atoms CPU = 0.001 seconds
mass            1 1.0

velocity        all create 1.44 157677 loop geom

pair_style      lj/cut 2.5
pair_coeff      1 1 1.0 1.0 2.5

neighbor        0.3 bin
neigh_modify    delay 0 every 20 check no

fix             1 all nve

run             33000
Generated 0 of 0 mixed pair_coeff terms from geometric mixing rule
Neighbor list info ...
  update: every = 20 steps, delay = 0 steps, check = no
  max neighbors/atom: 2000, page size: 100000
  master list distance cutoff = 2.8
  ghost atom cutoff = 2.8
  binsize = 1.4, bins = 24 24 24
  1 neighbor lists, perpetual/occasional/extra = 1 0 0
  (1) pair lj/cut, perpetual
      attributes: half, newton on
      pair build: half/bin/atomonly/newton
      stencil: half/bin/3d
      bin: standard
Per MPI rank memory allocation (min/avg/max) = 5.831 | 5.832 | 5.833 Mbytes
   Step          Temp          E_pair         E_mol          TotEng         Press     
     19000   0.69848993    -5.6700754      0             -4.6223732      0.72614787   
     33000   0.69432756    -5.6656418      0             -4.624183       0.75397697   
Loop time of 46.4384 on 4 procs for 14000 steps with 32000 atoms

Performance: 130237.018 tau/day, 301.475 timesteps/s, 9.647 Matom-step/s
98.9% CPU use with 4 MPI tasks x 1 OpenMP threads

MPI task timing breakdown:
Section |  min time  |  avg time  |  max time  |%varavg| %total
---------------------------------------------------------------
Pair    | 35.615     | 35.898     | 36.171     |   4.2 | 77.30
Neigh   | 7.1883     | 7.2608     | 7.3568     |   2.3 | 15.64
Comm    | 2.1271     | 2.5033     | 2.8783     |  19.3 |  5.39
Output  | 3.0291e-05 | 3.5864e-05 | 4.6583e-05 |   0.0 |  0.00
Modify  | 0.65512    | 0.67221    | 0.68215    |   1.2 |  1.45
Other   |            | 0.1037     |            |       |  0.22

Nlocal:           8000 ave        8020 max        7987 min
Histogram: 2 0 0 0 1 0 0 0 0 1
Nghost:        8556.25 ave        8571 max        8536 min
Histogram: 1 0 0 1 0 0 0 0 0 2
Neighs:         300016 ave      303040 max      296806 min
Histogram: 1 0 0 1 0 0 0 1 0 1

Total # of neighbors = 1200064
Ave neighs/atom = 37.502
Neighbor list builds = 700
Dangerous builds not checked
Total wall time: 0:00:46
