LAMMPS (2 Aug 2023)
OMP_NUM_THREADS environment is not set. Defaulting to 1 thread. (src/comm.cpp:98)
  using 1 OpenMP thread(s) per MPI task
# 3d Lennard-Jones melt (longer run for validation)

variable        x index 1
variable        y index 1
variable        z index 1

variable        xx equal 20*$x
variable        xx equal 20*1
variable        yy equal 20*$y
variable        yy equal 20*1
variable        zz equal 20*$z
variable        zz equal 20*1

units           lj
atom_style      atomic

lattice         fcc 0.8442
Lattice spacing in x,y,z = 1.6795962 1.6795962 1.6795962
region          box block 0 ${xx} 0 ${yy} 0 ${zz}
region          box block 0 20 0 ${yy} 0 ${zz}
region          box block 0 20 0 20 0 ${zz}
region          box block 0 20 0 20 0 20
create_box      1 box
Created orthogonal box = (0 0 0) to (33.591924 33.591924 33.591924)
  1 by 2 by 2 MPI processor grid
create_atoms    1 box
Created 32000 atoms
  using lattice units in orthogonal box = (0 0 0) to (33.591924 33.591924 33.591924)
  create_atoms CPU = 0.001 seconds
mass            1 1.0

velocity        all create 1.44 845995 loop geom

pair_style      lj/cut 2.5
pair_coeff      1 1 1.0 1.0 2.5

neighbor        0.3 bin
neigh_modify    delay 0 every 20 check no

fix             1 all nve

run             33000
Generated 0 of 0 mixed pair_coeff terms from geometric mixing rule
Neighbor list info ...
  update: every = 20 steps, delay = 0 steps, check = no
  max neighbors/atom: 2000, page size: 100000
  master list distance cutoff = 2.8
  ghost atom cutoff = 2.8
  binsize = 1.4, bins = 24 24 24
  1 neighbor lists, perpetual/occasional/extra = 1 0 0
  (1) pair lj/cut, perpetual
      attributes: half, newton on
      pair build: half/bin/atomonly/newton
      stencil: half/bin/3d
      bin: standard
Per MPI rank memory allocation (min/avg/max) = 5.881 | 5.881 | 5.881 Mbytes
   Step          Temp          E_pair         E_mol          TotEng         Press     
         0   1.44          -6.7733681      0             -4.6134356     -5.0197073    
     33000   0.69549346    -5.6677018      0             -4.6244942      0.73356376   
Loop time of 26.5276 on 4 procs for 33000 steps with 32000 atoms

Performance: 537402.376 tau/day, 1243.987 timesteps/s, 39.808 Matom-step/s
99.0% CPU use with 4 MPI tasks x 1 OpenMP threads

MPI task timing breakdown:
Section |  min time  |  avg time  |  max time  |%varavg| %total
---------------------------------------------------------------
Pair    | 20.228     | 20.498     | 20.894     |   5.8 | 77.27
Neigh   | 4.0991     | 4.1335     | 4.1755     |   1.4 | 15.58
Comm    | 1.0051     | 1.4482     | 1.7577     |  23.9 |  5.46
Output  | 3.3417e-05 | 4.2313e-05 | 6.2126e-05 |   0.0 |  0.00
Modify  | 0.37123    | 0.37545    | 0.38136    |   0.6 |  1.42
Other   |            | 0.07194    |            |       |  0.27

Nlocal:           8000 ave        8009 max        7991 min
Histogram: 1 0 1 0 0 0 0 1 0 1
Nghost:           8601 ave        8618 max        8576 min
Histogram: 1 0 0 0 0 1 0 0 1 1
Neighs:         299938 ave      302761 max      296544 min
Histogram: 1 0 0 0 1 0 0 1 0 1

Total # of neighbors = 1199751
Ave neighs/atom = 37.492219
Neighbor list builds = 400
Dangerous builds not checked
Total wall time: 0:00:26
