LAMMPS (2 Aug 2023)
OMP_NUM_THREADS environment is not set. Defaulting to 1 thread. (src/comm.cpp:98)
  using 1 OpenMP thread(s) per MPI task
# 3d Lennard-Jones melt (longer run for validation)

variable        x index 1
variable        y index 1
variable        z index 1

variable        xx equal 20*$x
variable        xx equal 20*1
variable        yy equal 20*$y
variable        yy equal 20*1
variable        zz equal 20*$z
variable        zz equal 20*1

units           lj
atom_style      atomic

lattice         fcc 0.8442
Lattice spacing in x,y,z = 1.6795962 1.6795962 1.6795962
region          box block 0 ${xx} 0 ${yy} 0 ${zz}
region          box block 0 20 0 ${yy} 0 ${zz}
region          box block 0 20 0 20 0 ${zz}
region          box block 0 20 0 20 0 20
create_box      1 box
Created orthogonal box = (0 0 0) to (33.591924 33.591924 33.591924)
  1 by 2 by 2 MPI processor grid
create_atoms    1 box
Created 32000 atoms
  using lattice units in orthogonal box = (0 0 0) to (33.591924 33.591924 33.591924)
  create_atoms CPU = 0.001 seconds
mass            1 1.0

velocity        all create 1.44 874183 loop geom

pair_style      lj/cut 2.5
pair_coeff      1 1 1.0 1.0 2.5

neighbor        0.3 bin
neigh_modify    delay 0 every 20 check no

fix             1 all nve

run             33000
Generated 0 of 0 mixed pair_coeff terms from geometric mixing rule
Neighbor list info ...
  update: every = 20 steps, delay = 0 steps, check = no
  max neighbors/atom: 2000, page size: 100000
  master list distance cutoff = 2.8
  ghost atom cutoff = 2.8
  binsize = 1.4, bins = 24 24 24
  1 neighbor lists, perpetual/occasional/extra = 1 0 0
  (1) pair lj/cut, perpetual
      attributes: half, newton on
      pair build: half/bin/atomonly/newton
      stencil: half/bin/3d
      bin: standard
Per MPI rank memory allocation (min/avg/max) = 5.831 | 5.831 | 5.831 Mbytes
   Step          Temp          E_pair         E_mol          TotEng         Press     
     26000   0.69397838    -5.6642495      0             -4.6233145      0.75223677   
     33000   0.69705661    -5.6694553      0             -4.6239031      0.73784373   
Loop time of 23.6442 on 4 procs for 7000 steps with 32000 atoms

Performance: 127896.260 tau/day, 296.056 timesteps/s, 9.474 Matom-step/s
98.7% CPU use with 4 MPI tasks x 1 OpenMP threads

MPI task timing breakdown:
Section |  min time  |  avg time  |  max time  |%varavg| %total
---------------------------------------------------------------
Pair    | 18.061     | 18.237     | 18.463     |   3.4 | 77.13
Neigh   | 3.632      | 3.649      | 3.6736     |   0.8 | 15.43
Comm    | 1.0854     | 1.34       | 1.5356     |  14.0 |  5.67
Output  | 2.9583e-05 | 4.025e-05  | 5.7499e-05 |   0.0 |  0.00
Modify  | 0.32939    | 0.33207    | 0.33459    |   0.4 |  1.40
Other   |            | 0.08643    |            |       |  0.37

Nlocal:           8000 ave        8011 max        7985 min
Histogram: 1 0 0 0 1 0 0 0 1 1
Nghost:        8598.25 ave        8624 max        8584 min
Histogram: 1 0 2 0 0 0 0 0 0 1
Neighs:         300061 ave      304050 max      296156 min
Histogram: 1 0 1 0 0 0 1 0 0 1

Total # of neighbors = 1200245
Ave neighs/atom = 37.507656
Neighbor list builds = 350
Dangerous builds not checked
Total wall time: 0:00:23
