LAMMPS (2 Aug 2023)
OMP_NUM_THREADS environment is not set. Defaulting to 1 thread. (src/comm.cpp:98)
  using 1 OpenMP thread(s) per MPI task
variable        x index 1
variable        y index 1
variable        z index 1
variable        xx equal 20*$x
variable        xx equal 20*1
variable        yy equal 20*$y
variable        yy equal 20*1
variable        zz equal 20*$z
variable        zz equal 20*1
units           lj
atom_style      atomic
lattice         fcc 0.8442
Lattice spacing in x,y,z = 1.6795962 1.6795962 1.6795962
region          box block 0 ${xx} 0 ${yy} 0 ${zz}
region          box block 0 20 0 ${yy} 0 ${zz}
region          box block 0 20 0 20 0 ${zz}
region          box block 0 20 0 20 0 20
create_box      1 box
Created orthogonal box = (0 0 0) to (33.591924 33.591924 33.591924)
  1 by 2 by 2 MPI processor grid
create_atoms    1 box
Created 32000 atoms
  using lattice units in orthogonal box = (0 0 0) to (33.591924 33.591924 33.591924)
  create_atoms CPU = 0.001 seconds
mass            1 1.0
velocity        all create 1.44 77322 loop geom
pair_style      lj/cut 2.5
pair_coeff      1 1 1.0 1.0 2.5
neighbor        0.3 bin
neigh_modify    delay 0 every 20 check no
fix             1 all nve
reset_timestep 11000
run 22000 pre yes post yes
Generated 0 of 0 mixed pair_coeff terms from geometric mixing rule
Neighbor list info ...
  update: every = 20 steps, delay = 0 steps, check = no
  max neighbors/atom: 2000, page size: 100000
  master list distance cutoff = 2.8
  ghost atom cutoff = 2.8
  binsize = 1.4, bins = 24 24 24
  1 neighbor lists, perpetual/occasional/extra = 1 0 0
  (1) pair lj/cut, perpetual
      attributes: half, newton on
      pair build: half/bin/atomonly/newton
      stencil: half/bin/3d
      bin: standard
Per MPI rank memory allocation (min/avg/max) = 5.825 | 5.828 | 5.83 Mbytes
   Step          Temp          E_pair         E_mol          TotEng         Press     
     11000   0.69554689    -5.6646283      0             -4.6213406      0.74952047   
     33000   0.69407057    -5.665297       0             -4.6242237      0.76063438   
Loop time of 71.9459 on 4 procs for 22000 steps with 32000 atoms

Performance: 132099.181 tau/day, 305.785 timesteps/s, 9.785 Matom-step/s
99.1% CPU use with 4 MPI tasks x 1 OpenMP threads

MPI task timing breakdown:
Section |  min time  |  avg time  |  max time  |%varavg| %total
---------------------------------------------------------------
Pair    | 55.371     | 55.976     | 56.549     |   6.1 | 77.80
Neigh   | 11.236     | 11.3       | 11.357     |   1.5 | 15.71
Comm    | 2.8948     | 3.5065     | 4.1796     |  26.9 |  4.87
Output  | 5.6958e-05 | 6.3833e-05 | 7.8125e-05 |   0.0 |  0.00
Modify  | 1.0262     | 1.0309     | 1.0338     |   0.3 |  1.43
Other   |            | 0.1327     |            |       |  0.18

Nlocal:           8000 ave        8027 max        7961 min
Histogram: 1 0 0 0 0 0 1 1 0 1
Nghost:        8574.25 ave        8607 max        8548 min
Histogram: 2 0 0 0 0 0 1 0 0 1
Neighs:         300062 ave      303680 max      295039 min
Histogram: 1 0 0 0 0 0 1 1 0 1

Total # of neighbors = 1200246
Ave neighs/atom = 37.507688
Neighbor list builds = 1100
Dangerous builds not checked
Total wall time: 0:01:11
