LAMMPS (2 Aug 2023)
OMP_NUM_THREADS environment is not set. Defaulting to 1 thread. (src/comm.cpp:98)
  using 1 OpenMP thread(s) per MPI task
variable        x index 1
variable        y index 1
variable        z index 1
variable        xx equal 20*$x
variable        xx equal 20*1
variable        yy equal 20*$y
variable        yy equal 20*1
variable        zz equal 20*$z
variable        zz equal 20*1
units           lj
atom_style      atomic
lattice         fcc 0.8442
Lattice spacing in x,y,z = 1.6795962 1.6795962 1.6795962
region          box block 0 ${xx} 0 ${yy} 0 ${zz}
region          box block 0 20 0 ${yy} 0 ${zz}
region          box block 0 20 0 20 0 ${zz}
region          box block 0 20 0 20 0 20
create_box      1 box
Created orthogonal box = (0 0 0) to (33.591924 33.591924 33.591924)
  1 by 2 by 2 MPI processor grid
create_atoms    1 box
Created 32000 atoms
  using lattice units in orthogonal box = (0 0 0) to (33.591924 33.591924 33.591924)
  create_atoms CPU = 0.001 seconds
mass            1 1.0
velocity        all create 1.44 655461 loop geom
pair_style      lj/cut 2.5
pair_coeff      1 1 1.0 1.0 2.5
neighbor        0.3 bin
neigh_modify    delay 0 every 20 check no
fix             1 all nve
Generated 0 of 0 mixed pair_coeff terms from geometric mixing rule
Neighbor list info ...
  update: every = 20 steps, delay = 0 steps, check = no
  max neighbors/atom: 2000, page size: 100000
  master list distance cutoff = 2.8
  ghost atom cutoff = 2.8
  binsize = 1.4, bins = 24 24 24
  1 neighbor lists, perpetual/occasional/extra = 1 0 0
  (1) pair lj/cut, perpetual
      attributes: half, newton on
      pair build: half/bin/atomonly/newton
      stencil: half/bin/3d
      bin: standard
run 3300 pre no post no
   Step          Temp          E_pair         E_mol          TotEng         Press     
     23100   0.69589336    -5.6668828      0             -4.6230753      0.74308283   
     26400   0.69301842    -5.6630826      0             -4.6235875      0.76176889   
Loop time of 11.1123 on 4 procs for 3300 steps with 32000 atoms

run 3300 pre no post no
   Step          Temp          E_pair         E_mol          TotEng         Press     
     26400   0.69301842    -5.6630826      0             -4.6235875      0.76176889   
     29700   0.69457444    -5.6656257      0             -4.6237966      0.75666725   
Loop time of 10.9751 on 4 procs for 3300 steps with 32000 atoms

run 3300 pre no
   Step          Temp          E_pair         E_mol          TotEng         Press     
     29700   0.69457444    -5.6656257      0             -4.6237966      0.75666725   
     33000   0.69696057    -5.6695613      0             -4.6241531      0.72841031   
Loop time of 11.0088 on 4 procs for 3300 steps with 32000 atoms

Performance: 129496.149 tau/day, 299.760 timesteps/s, 9.592 Matom-step/s
99.1% CPU use with 4 MPI tasks x 1 OpenMP threads

MPI task timing breakdown:
Section |  min time  |  avg time  |  max time  |%varavg| %total
---------------------------------------------------------------
Pair    | 8.3867     | 8.5246     | 8.6452     |   3.8 | 77.43
Neigh   | 1.7061     | 1.7213     | 1.7298     |   0.7 | 15.64
Comm    | 0.45927    | 0.58704    | 0.74155    |  15.1 |  5.33
Output  | 5.5583e-05 | 6.2552e-05 | 7.8375e-05 |   0.0 |  0.00
Modify  | 0.15477    | 0.15616    | 0.15823    |   0.3 |  1.42
Other   |            | 0.01964    |            |       |  0.18

Nlocal:           8000 ave        8005 max        7994 min
Histogram: 1 0 1 0 0 0 0 0 0 2
Nghost:           8618 ave        8646 max        8569 min
Histogram: 1 0 0 0 0 1 0 0 0 2
Neighs:         300071 ave      303302 max      297624 min
Histogram: 1 1 0 0 0 1 0 0 0 1

Total # of neighbors = 1200283
Ave neighs/atom = 37.508844
Neighbor list builds = 495
Dangerous builds not checked
Total wall time: 0:00:33
